LAMMPS input file generated by the PHASE I/O utility
# created on : 05/14/21 13:42:36

72 atoms
2 atom types
0 9.842000000000002 xlo xhi
0 8.523422024046447 ylo yhi
0 10.832600000000001 zlo zhi
0.0 0.0 0.0 xy xz yz

Atoms

1 1 9.693385800000001 0.0 9.929865279000001
2 1 1.3045571000000007 2.00215183344851 0.9026986123333335
3 1 1.3045570999999994 6.521270190597937 2.708131945666667
4 2 8.766023350000001 1.1400076957162126 9.28299657
5 2 0.7809627000000005 0.6290285453746278 0.2558299033333334
6 2 7.676513950000001 6.754385782955607 2.0612632366666666
7 2 8.766023350000001 7.383414328330234 10.57677009666667
8 2 7.676513950000002 1.7690362410908402 1.5496034300000006
9 2 0.7809627 7.8943934786718195 8.771336763333334
10 1 2.311885800000001 4.261711012023223 9.929865279000001
11 1 8.686057100000003 6.263862845471734 0.9026986123333335
12 1 8.686057100000003 2.2595591785747136 2.708131945666667
13 2 1.3845233500000018 5.401718707739437 9.28299657
14 2 8.1624627 4.890739557397852 0.2558299033333334
15 2 0.29501395000000086 2.4926747709323833 2.0612632366666666
16 2 1.3845233500000012 3.121703316307011 10.57677009666667
17 2 0.2950139500000013 6.030747253114064 1.5496034300000006
18 2 8.1624627 3.6326824666485957 8.771336763333334
19 1 9.693385800000001 0.0 4.513565279
20 1 1.3045571000000007 2.00215183344851 6.318998612333334
21 1 1.3045570999999994 6.521270190597937 8.124431945666668
22 2 8.766023350000001 1.1400076957162126 3.8666965700000007
23 2 0.7809627000000005 0.6290285453746278 5.672129903333334
24 2 7.676513950000001 6.754385782955607 7.477563236666666
25 2 8.766023350000001 7.383414328330234 5.160470096666666
26 2 7.676513950000002 1.7690362410908402 6.965903430000002
27 2 0.7809627 7.8943934786718195 3.3550367633333336
28 1 2.311885800000001 4.261711012023223 4.513565279
29 1 8.686057100000003 6.263862845471734 6.318998612333334
30 1 8.686057100000003 2.2595591785747136 8.124431945666668
31 2 1.3845233500000018 5.401718707739437 3.8666965700000007
32 2 8.1624627 4.890739557397852 5.672129903333334
33 2 0.29501395000000086 2.4926747709323833 7.477563236666666
34 2 1.3845233500000012 3.121703316307011 5.160470096666666
35 2 0.2950139500000013 6.030747253114064 6.965903430000002
36 2 8.1624627 3.6326824666485957 3.3550367633333336
37 1 4.772385800000001 0.0 9.929865279000001
38 1 6.225557100000002 2.00215183344851 0.9026986123333335
39 1 6.2255571000000005 6.521270190597937 2.708131945666667
40 2 3.8450233500000004 1.1400076957162126 9.28299657
41 2 5.701962700000001 0.6290285453746278 0.2558299033333334
42 2 2.75551395 6.754385782955607 2.0612632366666666
43 2 3.84502335 7.383414328330234 10.57677009666667
44 2 2.7555139500000005 1.7690362410908402 1.5496034300000006
45 2 5.701962700000001 7.8943934786718195 8.771336763333334
46 1 7.232885800000002 4.261711012023223 9.929865279000001
47 1 3.7650571000000017 6.263862845471734 0.9026986123333335
48 1 3.7650571000000017 2.2595591785747136 2.708131945666667
49 2 6.305523350000001 5.401718707739437 9.28299657
50 2 3.2414627000000014 4.890739557397852 0.2558299033333334
51 2 5.216013950000002 2.4926747709323833 2.0612632366666666
52 2 6.305523350000001 3.121703316307011 10.57677009666667
53 2 5.216013950000003 6.030747253114064 1.5496034300000006
54 2 3.2414627000000014 3.6326824666485957 8.771336763333334
55 1 4.772385800000001 0.0 4.513565279
56 1 6.225557100000002 2.00215183344851 6.318998612333334
57 1 6.2255571000000005 6.521270190597937 8.124431945666668
58 2 3.8450233500000004 1.1400076957162126 3.8666965700000007
59 2 5.701962700000001 0.6290285453746278 5.672129903333334
60 2 2.75551395 6.754385782955607 7.477563236666666
61 2 3.84502335 7.383414328330234 5.160470096666666
62 2 2.7555139500000005 1.7690362410908402 6.965903430000002
63 2 5.701962700000001 7.8943934786718195 3.3550367633333336
64 1 7.232885800000002 4.261711012023223 4.513565279
65 1 3.7650571000000017 6.263862845471734 6.318998612333334
66 1 3.7650571000000017 2.2595591785747136 8.124431945666668
67 2 6.305523350000001 5.401718707739437 3.8666965700000007
68 2 3.2414627000000014 4.890739557397852 5.672129903333334
69 2 5.216013950000002 2.4926747709323833 7.477563236666666
70 2 6.305523350000001 3.121703316307011 5.160470096666666
71 2 5.216013950000003 6.030747253114064 6.965903430000002
72 2 3.2414627000000014 3.6326824666485957 3.3550367633333336
